Generated by pymatgen.io.lammps.data.LammpsData

265  atoms

  2  atom types

0.000000 28.553120  xlo xhi
0.000000 28.553120  ylo yhi
0.000000 28.553120  zlo zhi
0.000000 0.000000 0.000000  xy xz yz

Masses

1  55.847000
2  30.973762

Atoms

1     2  1  0.000000  0.000000  0.000000
2     2  2  0.000000  0.000000  2.855312
3     1  1  0.000000  0.000000  5.710624
4     1  1  0.000000  0.000000  8.565936
8     1  1  0.000000  0.000000 19.987184
9     1  1  0.000000  0.000000 22.842496
10    2  1  0.000000  0.000000 25.697808
11    2  1  0.000000  2.855312  0.000000
12    2  1  0.000000  2.855312  2.855312
13    1  1  0.000000  2.855312  5.710624
14    1  1  0.000000  2.855312  8.565936
18    1  1  0.000000  2.855312 19.987184
19    1  1  0.000000  2.855312 22.842496
20    2  1  0.000000  2.855312 25.697808
21    1  1  0.000000  5.710624  0.000000
22    1  1  0.000000  5.710624  2.855312
23    1  1  0.000000  5.710624  5.710624
30    1  1  0.000000  5.710624 25.697808
80    1  1  0.000000 19.987184 25.697808
81    2  1  0.000000 22.842496  0.000000
82    2  1  0.000000 22.842496  2.855312
83    1  1  0.000000 22.842496  5.710624
88    1  1  0.000000 22.842496 19.987184
89    1  1  0.000000 22.842496 22.842496
90    1  1  0.000000 22.842496 25.697808
91    2  1  0.000000 25.697808  0.000000
92    2  1  0.000000 25.697808  2.855312
93    1  1  0.000000 25.697808  5.710624
94    1  1  0.000000 25.697808  8.565936
98    1  1  0.000000 25.697808 19.987184
99    1  1  0.000000 25.697808 22.842496
100   2  1  0.000000 25.697808 25.697808
101   2  1  2.855312  0.000000  0.000000
102   2  1  2.855312  0.000000  2.855312
103   1  1  2.855312  0.000000  5.710624
104   1  1  2.855312  0.000000  8.565936
108   1  1  2.855312  0.000000 19.987184
109   1  1  2.855312  0.000000 22.842496
110   2  1  2.855312  0.000000 25.697808
111   2  1  2.855312  2.855312  0.000000
112   1  1  2.855312  2.855312  2.855312
113   1  1  2.855312  2.855312  5.710624
114   1  1  2.855312  2.855312  8.565936
119   1  1  2.855312  2.855312 22.842496
120   2  1  2.855312  2.855312 25.697808
121   1  1  2.855312  5.710624  0.000000
122   1  1  2.855312  5.710624  2.855312
123   1  1  2.855312  5.710624  5.710624
181   2  1  2.855312 22.842496  0.000000
182   1  1  2.855312 22.842496  2.855312
183   1  1  2.855312 22.842496  5.710624
189   1  1  2.855312 22.842496 22.842496
190   1  1  2.855312 22.842496 25.697808
191   2  1  2.855312 25.697808  0.000000
192   2  1  2.855312 25.697808  2.855312
193   1  1  2.855312 25.697808  5.710624
194   1  1  2.855312 25.697808  8.565936
198   1  1  2.855312 25.697808 19.987184
199   1  1  2.855312 25.697808 22.842496
200   2  1  2.855312 25.697808 25.697808
201   1  1  5.710624  0.000000  0.000000
202   1  1  5.710624  0.000000  2.855312
203   1  1  5.710624  0.000000  5.710624
210   1  1  5.710624  0.000000 25.697808
211   1  1  5.710624  2.855312  0.000000
212   1  1  5.710624  2.855312  2.855312
213   1  1  5.710624  2.855312  5.710624
291   1  1  5.710624 25.697808  0.000000
292   1  1  5.710624 25.697808  2.855312
293   1  1  5.710624 25.697808  5.710624
300   1  1  5.710624 25.697808 25.697808
710   1  1 19.987184  0.000000 25.697808
800   1  1 19.987184 25.697808 25.697808
801   2  1 22.842496  0.000000  0.000000
802   2  1 22.842496  0.000000  2.855312
803   1  1 22.842496  0.000000  5.710624
808   1  1 22.842496  0.000000 19.987184
809   1  1 22.842496  0.000000 22.842496
810   1  1 22.842496  0.000000 25.697808
811   2  1 22.842496  2.855312  0.000000
812   1  1 22.842496  2.855312  2.855312
813   1  1 22.842496  2.855312  5.710624
819   1  1 22.842496  2.855312 22.842496
820   1  1 22.842496  2.855312 25.697808
881   1  1 22.842496 22.842496  0.000000
889   1  1 22.842496 22.842496 22.842496
890   1  1 22.842496 22.842496 25.697808
891   2  1 22.842496 25.697808  0.000000
892   2  1 22.842496 25.697808  2.855312
893   1  1 22.842496 25.697808  5.710624
898   1  1 22.842496 25.697808 19.987184
899   1  1 22.842496 25.697808 22.842496
900   1  1 22.842496 25.697808 25.697808
901   2  1 25.697808  0.000000  0.000000
902   2  1 25.697808  0.000000  2.855312
903   1  1 25.697808  0.000000  5.710624
904   1  1 25.697808  0.000000  8.565936
908   1  1 25.697808  0.000000 19.987184
909   1  1 25.697808  0.000000 22.842496
910   2  1 25.697808  0.000000 25.697808
911   2  1 25.697808  2.855312  0.000000
912   2  1 25.697808  2.855312  2.855312
913   1  1 25.697808  2.855312  5.710624
914   1  1 25.697808  2.855312  8.565936
918   1  1 25.697808  2.855312 19.987184
919   1  1 25.697808  2.855312 22.842496
920   2  1 25.697808  2.855312 25.697808
921   1  1 25.697808  5.710624  0.000000
922   1  1 25.697808  5.710624  2.855312
923   1  1 25.697808  5.710624  5.710624
930   1  1 25.697808  5.710624 25.697808
980   1  1 25.697808 19.987184 25.697808
981   2  1 25.697808 22.842496  0.000000
982   2  1 25.697808 22.842496  2.855312
983   1  1 25.697808 22.842496  5.710624
988   1  1 25.697808 22.842496 19.987184
989   1  1 25.697808 22.842496 22.842496
990   1  1 25.697808 22.842496 25.697808
991   2  1 25.697808 25.697808  0.000000
992   2  1 25.697808 25.697808  2.855312
993   1  1 25.697808 25.697808  5.710624
994   1  1 25.697808 25.697808  8.565936
998   1  1 25.697808 25.697808 19.987184
999   1  1 25.697808 25.697808 22.842496
1000  2  1 25.697808 25.697808 25.697808
1001  2  1  1.427656  1.427656  1.427656
1002  1  1  1.427656  1.427656  4.282968
1003  1  1  1.427656  1.427656  7.138280
1004  1  1  1.427656  1.427656  9.993592
1008  1  1  1.427656  1.427656 21.414840
1009  2  1  1.427656  1.427656 24.270152
1010  2  1  1.427656  1.427656 27.125464
1011  2  1  1.427656  4.282968  1.427656
1012  1  1  1.427656  4.282968  4.282968
1013  1  1  1.427656  4.282968  7.138280
1018  1  1  1.427656  4.282968 21.414840
1019  1  1  1.427656  4.282968 24.270152
1020  2  1  1.427656  4.282968 27.125464
1021  1  1  1.427656  7.138280  1.427656
1022  1  1  1.427656  7.138280  4.282968
1071  2  1  1.427656 21.414840  1.427656
1072  1  1  1.427656 21.414840  4.282968
1078  1  1  1.427656 21.414840 21.414840
1079  1  1  1.427656 21.414840 24.270152
1080  1  1  1.427656 21.414840 27.125464
1081  2  1  1.427656 24.270152  1.427656
1082  1  1  1.427656 24.270152  4.282968
1083  1  1  1.427656 24.270152  7.138280
1088  1  1  1.427656 24.270152 21.414840
1089  1  1  1.427656 24.270152 24.270152
1090  2  1  1.427656 24.270152 27.125464
1091  2  1  1.427656 27.125464  1.427656
1092  2  1  1.427656 27.125464  4.282968
1093  1  1  1.427656 27.125464  7.138280
1094  1  1  1.427656 27.125464  9.993592
1097  1  1  1.427656 27.125464 18.559528
1098  1  1  1.427656 27.125464 21.414840
1099  2  1  1.427656 27.125464 24.270152
1100  2  1  1.427656 27.125464 27.125464
1101  2  1  4.282968  1.427656  1.427656
1102  1  1  4.282968  1.427656  4.282968
1103  1  1  4.282968  1.427656  7.138280
1108  1  1  4.282968  1.427656 21.414840
1109  1  1  4.282968  1.427656 24.270152
1110  2  1  4.282968  1.427656 27.125464
1111  1  1  4.282968  4.282968  1.427656
1112  1  1  4.282968  4.282968  4.282968
1113  1  1  4.282968  4.282968  7.138280
1120  1  1  4.282968  4.282968 27.125464
1181  2  1  4.282968 24.270152  1.427656
1182  1  1  4.282968 24.270152  4.282968
1183  1  1  4.282968 24.270152  7.138280
1188  1  1  4.282968 24.270152 21.414840
1189  1  1  4.282968 24.270152 24.270152
1190  2  1  4.282968 24.270152 27.125464
1191  2  1  4.282968 27.125464  1.427656
1192  1  1  4.282968 27.125464  4.282968
1193  1  1  4.282968 27.125464  7.138280
1198  1  1  4.282968 27.125464 21.414840
1199  1  1  4.282968 27.125464 24.270152
1200  2  1  4.282968 27.125464 27.125464
1201  1  1  7.138280  1.427656  1.427656
1202  1  1  7.138280  1.427656  4.282968
1291  1  1  7.138280 27.125464  1.427656
1292  1  1  7.138280 27.125464  4.282968
1701  2  1 21.414840  1.427656  1.427656
1702  1  1 21.414840  1.427656  4.282968
1708  1  1 21.414840  1.427656 21.414840
1709  1  1 21.414840  1.427656 24.270152
1710  1  1 21.414840  1.427656 27.125464
1781  1  1 21.414840 24.270152  1.427656
1788  1  1 21.414840 24.270152 21.414840
1789  1  1 21.414840 24.270152 24.270152
1790  1  1 21.414840 24.270152 27.125464
1791  2  1 21.414840 27.125464  1.427656
1792  1  1 21.414840 27.125464  4.282968
1798  1  1 21.414840 27.125464 21.414840
1799  1  1 21.414840 27.125464 24.270152
1800  1  1 21.414840 27.125464 27.125464
1801  2  1 24.270152  1.427656  1.427656
1802  1  1 24.270152  1.427656  4.282968
1803  1  1 24.270152  1.427656  7.138280
1808  1  1 24.270152  1.427656 21.414840
1809  1  1 24.270152  1.427656 24.270152
1810  2  1 24.270152  1.427656 27.125464
1811  2  1 24.270152  4.282968  1.427656
1812  1  1 24.270152  4.282968  4.282968
1813  1  1 24.270152  4.282968  7.138280
1818  1  1 24.270152  4.282968 21.414840
1819  1  1 24.270152  4.282968 24.270152
1820  2  1 24.270152  4.282968 27.125464
1871  1  1 24.270152 21.414840  1.427656
1878  1  1 24.270152 21.414840 21.414840
1879  1  1 24.270152 21.414840 24.270152
1880  1  1 24.270152 21.414840 27.125464
1881  2  1 24.270152 24.270152  1.427656
1882  1  1 24.270152 24.270152  4.282968
1883  1  1 24.270152 24.270152  7.138280
1888  1  1 24.270152 24.270152 21.414840
1889  1  1 24.270152 24.270152 24.270152
1890  2  1 24.270152 24.270152 27.125464
1891  2  1 24.270152 27.125464  1.427656
1892  2  1 24.270152 27.125464  4.282968
1893  1  1 24.270152 27.125464  7.138280
1897  1  1 24.270152 27.125464 18.559528
1898  1  1 24.270152 27.125464 21.414840
1899  1  1 24.270152 27.125464 24.270152
1900  2  1 24.270152 27.125464 27.125464
1901  2  1 27.125464  1.427656  1.427656
1902  2  1 27.125464  1.427656  4.282968
1903  1  1 27.125464  1.427656  7.138280
1904  1  1 27.125464  1.427656  9.993592
1907  1  1 27.125464  1.427656 18.559528
1908  1  1 27.125464  1.427656 21.414840
1909  2  1 27.125464  1.427656 24.270152
1910  2  1 27.125464  1.427656 27.125464
1911  2  1 27.125464  4.282968  1.427656
1912  1  1 27.125464  4.282968  4.282968
1913  1  1 27.125464  4.282968  7.138280
1918  1  1 27.125464  4.282968 21.414840
1919  1  1 27.125464  4.282968 24.270152
1920  2  1 27.125464  4.282968 27.125464
1921  1  1 27.125464  7.138280  1.427656
1922  1  1 27.125464  7.138280  4.282968
1971  2  1 27.125464 21.414840  1.427656
1972  1  1 27.125464 21.414840  4.282968
1978  1  1 27.125464 21.414840 21.414840
1979  1  1 27.125464 21.414840 24.270152
1980  1  1 27.125464 21.414840 27.125464
1981  2  1 27.125464 24.270152  1.427656
1982  2  1 27.125464 24.270152  4.282968
1983  1  1 27.125464 24.270152  7.138280
1987  1  1 27.125464 24.270152 18.559528
1988  1  1 27.125464 24.270152 21.414840
1989  1  1 27.125464 24.270152 24.270152
1990  2  1 27.125464 24.270152 27.125464
1991  2  1 27.125464 27.125464  1.427656
1992  2  1 27.125464 27.125464  4.282968
2001  2  1 27.125464 27.125464 25.700000
1993  1  1 27.125464 27.125464  7.138280
1994  1  1 27.125464 27.125464  9.993592
1997  1  1 27.125464 27.125464 18.559528
1998  1  1 27.125464 27.125464 21.414840
1999  2  1 27.125464 27.125464 24.270152
2000  2  1 27.125464 27.125464 27.125464

