Generated by pymatgen.io.lammps.data.LammpsData

2001  atoms

   2  atom types

0.000000 28.553120  xlo xhi
0.000000 28.553120  ylo yhi
0.000000 28.553120  zlo zhi
0.000000 0.000000 0.000000  xy xz yz

Masses

1  55.847000
2  30.973762

Atoms

1     0  1  0.104141  0.104141  0.131340
2     0  2  0.010830  0.010830  2.861580
3     0  1  0.002780  0.002780  5.709873
4     0  1  0.001153  0.001153  8.567645
5     0  1  0.000888  0.000888 11.423584
6     0  1  0.001415  0.001415 14.277850
7     0  1  0.003769  0.003769 17.130076
8     0  1  0.013996  0.013996 19.974881
9     0  1  0.100370  0.100370 22.738134
10    0  1 28.505536 28.505536 25.705212
11    0  1  0.017358  2.858596  0.031069
12    0  1  0.006663  2.867384  2.877345
13    0  1  0.002690  2.851248  5.709842
14    0  1  0.001332  2.855022  8.567862
15    0  1  0.001013  2.856266 11.423230
16    0  1  0.001383  2.857685 14.276898
17    0  1  0.002778  2.861421 17.127771
18    0  1  0.006639  2.872330 19.971580
19    0  1  0.016891  2.866997 22.829150
20    0  1  0.000160  2.851019 25.704715
21    0  1  0.004015  5.710105  0.009926
22    0  1  0.002946  5.715631  2.864395
23    0  1  0.001434  5.713984  5.716895
24    0  1  0.000980  5.711546  8.569075
25    0  1  0.000847  5.711744 11.422953
26    0  1  0.000982  5.713397 14.276518
27    0  1  0.001477  5.716256 17.129074
28    0  1  0.002879  5.715786 19.984736
29    0  1  0.003863  5.711436 22.842984
30    0  1  0.001260  5.708362 25.703308
31    0  1  0.000860  8.565691  0.004709
32    0  1  0.001012  8.567481  2.860012
33    0  1  0.000810  8.568028  5.715273
34    0  1  0.000710  8.567249  8.569546
35    0  1  0.000705  8.566895 11.423322
36    0  1  0.000716  8.567740 14.277487
37    0  1  0.000818  8.568126 17.132774
38    0  1  0.000983  8.566976 19.989162
39    0  1  0.000812  8.565307 22.845612
40    0  1  0.000247  8.564677 25.702016
41    0  1 28.552870 11.421391  0.003292
42    0  1  0.000312 11.421564  2.858674
43    0  1  0.000638 11.421502  5.714265
44    0  1  0.000753 11.421274  8.569419
45    0  1  0.000776 11.421150 11.423844
46    0  1  0.000760 11.421224 14.278535
47    0  1  0.000642 11.421265 17.134237
48    0  1  0.000302 11.421150 19.990324
49    0  1 28.552855 11.421038 22.846052
50    0  1 28.552514 11.421126 25.701292
51    0  1 28.552364 14.276972  0.002947
52    0  1  0.000484 14.275808  2.858951
53    0  1  0.001083 14.274929  5.715020
54    0  1  0.001036 14.275007  8.570034
55    0  1  0.000903 14.275328 11.424051
56    0  1  0.001046 14.274993 14.278220
57    0  1  0.001092 14.274909 17.133577
58    0  1  0.000485 14.275793 19.989955
59    0  1 28.552362 14.276965 22.846104
60    0  1 28.551764 14.277390 25.701099
61    0  1 28.552801 17.131620  0.003518
62    0  1  0.002183 17.128563  2.861447
63    0  1  0.002295 17.127996  5.717530
64    0  1  0.001168 17.129881  8.570603
65    0  1  0.000800 17.130615 11.423852
66    0  1  0.001180 17.129901 14.277363
67    0  1  0.002312 17.128193 17.130980
68    0  1  0.002190 17.128946 19.987567
69    0  1 28.552808 17.131958 22.845844
70    0  1 28.551416 17.133137 25.701306
71    0  1  0.004548 19.982810  0.008037
72    0  1  0.007800 19.978394  2.868881
73    0  1  0.002564 19.983941  5.718411
74    0  1  0.000849 19.986478  8.569996
75    0  1  0.000478 19.986887 11.423353
76    0  1  0.000855 19.985971 14.277065
77    0  1  0.002572 19.983821 17.129656
78    0  1  0.007796 19.978879 19.980333
79    0  1  0.004571 19.983154 22.842330
80    0  1  0.000381 19.987253 25.702093
81    0  1 28.542749 22.855285  0.006507
82    0  1  0.000363 22.842545  2.866599
83    0  1  0.001060 22.843899  5.715593
84    0  1  0.000507 22.844081  8.568284
85    0  1  0.000305 22.843163 11.423005
86    0  1  0.000498 22.842308 14.277400
87    0  1  0.001042 22.841601 17.130324
88    0  1  0.000213 22.842642 19.982783
89    0  1 28.542697 22.853874 22.846578
90    0  1 28.533331 22.864439 25.703604
91    0  1  0.052103 25.671994  0.061595
92    0  1  0.008918 25.698810  2.868665
93    0  1  0.002301 25.708062  5.706621
94    0  1  0.000826 25.700786  8.566891
95    0  1  0.000540 25.698733 11.423275
96    0  1  0.000874 25.698315 14.277970
97    0  1  0.002337 25.698228 17.131074
98    0  1  0.008751 25.695444 19.979676
99    0  1  0.051018 25.663182 22.801072
100   0  1  0.106552 25.708244 25.704894
101   0  1  2.858596  0.017358  0.031069
102   0  1  2.867384  0.006663  2.877345
103   0  1  2.851248  0.002690  5.709842
104   0  1  2.855022  0.001332  8.567862
105   0  1  2.856266  0.001013 11.423230
106   0  1  2.857685  0.001383 14.276898
107   0  1  2.861421  0.002778 17.127771
108   0  1  2.872330  0.006639 19.971580
109   0  1  2.866997  0.016891 22.829150
110   0  1  2.851019  0.000160 25.704715
111   0  1  2.859950  2.859950  0.008733
112   0  1  2.868328  2.868328  2.882925
113   0  1  2.855666  2.855666  5.715073
114   0  1  2.855512  2.855512  8.568029
115   0  1  2.856561  2.856561 11.422972
116   0  1  2.858128  2.858128 14.276249
117   0  1  2.862546  2.862546 17.126165
118   0  1  2.876708  2.876708 19.968100
119   0  1  2.863942  2.863942 22.846756
120   0  1  2.860604  2.860604 25.704764
121   0  1  2.856938  5.711686  0.006583
122   0  1  2.860201  5.715845  2.865232
123   0  1  2.857450  5.714435  5.717688
124   0  1  2.856182  5.711761  8.569083
125   0  1  2.856594  5.712085 11.422843
126   0  1  2.857646  5.713903 14.276201
127   0  1  2.859833  5.717240 17.128417
128   0  1  2.862214  5.717690 19.984252
129   0  1  2.858410  5.713350 22.846067
130   0  1  2.856433  5.711477 25.703450
131   0  1  2.855861  8.566621  0.004045
132   0  1  2.857085  8.567977  2.860076
133   0  1  2.856972  8.568378  5.715428
134   0  1  2.856537  8.567580  8.569555
135   0  1  2.856567  8.567269 11.423295
136   0  1  2.856935  8.568178 14.277411
137   0  1  2.857394  8.568733 17.132628
138   0  1  2.857325  8.567873 19.989167
139   0  1  2.855960  8.566454 22.846251
140   0  1  2.855258  8.565958 25.702031
141   0  1  2.855065 11.421634  0.003052
142   0  1  2.855879 11.421854  2.858450
143   0  1  2.856398 11.421852  5.714074
144   0  1  2.856529 11.421669  8.569267
145   0  1  2.856555 11.421567 11.423835
146   0  1  2.856571 11.421662 14.278668
147   0  1  2.856395 11.421708 17.134424
148   0  1  2.855801 11.421557 19.990565
149   0  1  2.854982 11.421361 22.846298
150   0  1  2.854655 11.421397 25.701299
151   0  1  2.854892 14.276757  0.002755
152   0  1  2.855854 14.276160  2.858321
153   0  1  2.856630 14.275536  5.714364
154   0  1  2.856681 14.275542  8.569624
155   0  1  2.856543 14.275758 11.424045
156   0  1  2.856650 14.275532 14.278622
157   0  1  2.856546 14.275524 17.134234
158   0  1  2.855730 14.276152 19.990595
159   0  1  2.854795 14.276756 22.846311
160   0  1  2.854465 14.276950 25.701108
161   0  1  2.855187 17.131904  0.003045
162   0  1  2.856784 17.130235  2.859553
163   0  1  2.857534 17.129411  5.716026
164   0  1  2.856662 17.130447  8.570075
165   0  1  2.856322 17.130923 11.423846
166   0  1  2.856701 17.130437 14.277880
167   0  1  2.857522 17.129538 17.132491
168   0  1  2.856705 17.130525 19.989478
169   0  1  2.855103 17.132185 22.846337
170   0  1  2.854520 17.132647 25.701318
171   0  1  2.852953 19.989614  0.003864
172   0  1  2.855887 19.986418  2.861092
173   0  1  2.856674 19.985847  5.716599
174   0  1  2.856011 19.986875  8.569698
175   0  1  2.855894 19.986998 11.423330
176   0  1  2.856389 19.986274 14.277312
177   0  1  2.857040 19.985510 17.131507
178   0  1  2.856089 19.986549 19.988185
179   0  1  2.853036 19.989825 22.846513
180   0  1  2.851533 19.991348 25.702097
181   0  1  2.858052 22.840556  0.010041
182   0  1  2.861825 22.836849  2.869108
183   0  1  2.856428 22.842897  5.716412
184   0  1  2.855198 22.844067  8.568350
185   0  1  2.855663 22.843096 11.422901
186   0  1  2.856606 22.842007 14.277044
187   0  1  2.858678 22.840117 17.129709
188   0  1  2.863647 22.835102 19.980468
189   0  1  2.859505 22.838866 22.842724
190   0  1  2.854646 22.844296 25.703722
191   0  1  2.856911 25.703544  0.018575
192   0  1  2.859276 25.702695  2.873916
193   0  1  2.853491 25.703660  5.712599
194   0  1  2.854572 25.700494  8.567321
195   0  1  2.855829 25.698692 11.423029
196   0  1  2.857043 25.698059 14.277120
197   0  1  2.859859 25.697231 17.129030
198   0  1  2.867799 25.693873 19.976229
199   0  1  2.861459 25.698830 22.837544
200   0  1  2.851201 25.711606 25.705001
201   0  1  5.710105  0.004015  0.009926
202   0  1  5.715631  0.002946  2.864395
203   0  1  5.713984  0.001434  5.716895
204   0  1  5.711546  0.000980  8.569075
205   0  1  5.711744  0.000847 11.422953
206   0  1  5.713397  0.000982 14.276518
207   0  1  5.716256  0.001477 17.129074
208   0  1  5.715786  0.002879 19.984736
209   0  1  5.711436  0.003863 22.842984
210   0  1  5.708362  0.001260 25.703308
211   0  1  5.711686  2.856938  0.006583
212   0  1  5.715845  2.860201  2.865232
213   0  1  5.714435  2.857450  5.717688
214   0  1  5.711761  2.856182  8.569083
215   0  1  5.712085  2.856594 11.422843
216   0  1  5.713903  2.857646 14.276201
217   0  1  5.717240  2.859833 17.128417
218   0  1  5.717690  2.862214 19.984252
219   0  1  5.713350  2.858410 22.846067
220   0  1  5.711477  2.856433 25.703450
221   0  1  5.712521  5.712521  0.005185
222   0  1  5.714027  5.714027  2.861039
223   0  1  5.714748  5.714748  5.717831
224   0  1  5.712154  5.712154  8.569444
225   0  1  5.712219  5.712219 11.422842
226   0  1  5.713823  5.713823 14.276337
227   0  1  5.716676  5.716676 17.129429
228   0  1  5.715396  5.715396 19.988398
229   0  1  5.713597  5.713597 22.846522
230   0  1  5.712547  5.712547 25.702814
231   0  1  5.711321  8.566974  0.003628
232   0  1  5.712112  8.567607  2.859002
233   0  1  5.712743  8.568168  5.715017
234   0  1  5.712171  8.567589  8.569421
235   0  1  5.712121  8.567365 11.423306
236   0  1  5.712799  8.568249 14.277636
237   0  1  5.713405  8.568806 17.133137
238   0  1  5.712543  8.567953 19.990238
239   0  1  5.711540  8.567096 22.846590
240   0  1  5.711057  8.566715 25.701913
241   0  1  5.710545 11.421723  0.002888
242   0  1  5.711133 11.421852  2.858039
243   0  1  5.711716 11.421923  5.713661
244   0  1  5.711871 11.421804  8.568988
245   0  1  5.711893 11.421736 11.423839
246   0  1  5.711954 11.421878 14.278956
247   0  1  5.711755 11.421959 17.134840
248   0  1  5.711083 11.421784 19.990972
249   0  1  5.710470 11.421610 22.846460
250   0  1  5.710275 11.421604 25.701287
251   0  1  5.710185 14.276887  0.002657
252   0  1  5.710790 14.276551  2.857840
253   0  1  5.711433 14.276126  5.713567
254   0  1  5.711674 14.275952  8.569089
255   0  1  5.711617 14.276014 11.424042
256   0  1  5.711629 14.275948 14.279152
257   0  1  5.711320 14.276122 17.135025
258   0  1  5.710628 14.276552 19.991073
259   0  1  5.710057 14.276890 22.846416
260   0  1  5.709905 14.277001 25.701111
261   0  1  5.709572 17.132758  0.002782
262   0  1  5.710498 17.131813  2.858231
263   0  1  5.711321 17.130982  5.714207
264   0  1  5.711367 17.130963  8.569340
265   0  1  5.711271 17.131084 11.423852
266   0  1  5.711438 17.130883 14.278631
267   0  1  5.711343 17.130945 17.134312
268   0  1  5.710429 17.131894 19.990794
269   0  1  5.709481 17.132889 22.846584
270   0  1  5.709182 17.133181 25.701295
271   0  1  5.709641 19.988038  0.003473
272   0  1  5.711278 19.986337  2.859605
273   0  1  5.712063 19.985703  5.715665
274   0  1  5.711144 19.986706  8.569391
275   0  1  5.711027 19.986800 11.423343
276   0  1  5.711741 19.986051 14.277716
277   0  1  5.712680 19.985080 17.132514
278   0  1  5.711672 19.986010 19.989647
279   0  1  5.709819 19.987953 22.846798
280   0  1  5.709069 19.988772 25.701946
281   0  1  5.708582 22.844884  0.005010
282   0  1  5.711782 22.842098  2.861534
283   0  1  5.712075 22.842355  5.716166
284   0  1  5.710589 22.843304  8.568761
285   0  1  5.710910 22.842723 11.422901
286   0  1  5.712171 22.841709 14.277134
287   0  1  5.713978 22.840403 17.131040
288   0  1  5.713123 22.840703 19.987870
289   0  1  5.709634 22.843780 22.846763
290   0  1  5.707621 22.845949 25.702948
291   0  1  5.707908 25.701397  0.007915
292   0  1  5.712316 25.699529  2.863089
293   0  1  5.712325 25.699325  5.716094
294   0  1  5.710664 25.699136  8.568546
295   0  1  5.711219 25.698331 11.422882
296   0  1  5.712744 25.697710 14.276821
297   0  1  5.715086 25.696985 17.130012
298   0  1  5.714165 25.697402 19.986283
299   0  1  5.709574 25.699770 22.844808
300   0  1  5.705464 25.703334 25.703560
301   0  1  8.565691  0.000860  0.004709
302   0  1  8.567481  0.001012  2.860012
303   0  1  8.568028  0.000810  5.715273
304   0  1  8.567249  0.000710  8.569546
305   0  1  8.566895  0.000705 11.423322
306   0  1  8.567740  0.000716 14.277487
307   0  1  8.568126  0.000818 17.132774
308   0  1  8.566976  0.000983 19.989162
309   0  1  8.565307  0.000812 22.845612
310   0  1  8.564677  0.000247 25.702016
311   0  1  8.566621  2.855861  0.004045
312   0  1  8.567977  2.857085  2.860076
313   0  1  8.568378  2.856972  5.715428
314   0  1  8.567580  2.856537  8.569555
315   0  1  8.567269  2.856567 11.423295
316   0  1  8.568178  2.856935 14.277411
317   0  1  8.568733  2.857394 17.132628
318   0  1  8.567873  2.857325 19.989167
319   0  1  8.566454  2.855960 22.846251
320   0  1  8.565958  2.855258 25.702031
321   0  1  8.566974  5.711321  0.003628
322   0  1  8.567607  5.712112  2.859002
323   0  1  8.568168  5.712743  5.715017
324   0  1  8.567589  5.712171  8.569421
325   0  1  8.567365  5.712121 11.423306
326   0  1  8.568249  5.712799 14.277636
327   0  1  8.568806  5.713405 17.133137
328   0  1  8.567953  5.712543 19.990238
329   0  1  8.567096  5.711540 22.846590
330   0  1  8.566715  5.711057 25.701913
331   0  1  8.566616  8.566616  0.003130
332   0  1  8.566941  8.566941  2.858224
333   0  1  8.567286  8.567286  5.713823
334   0  1  8.567310  8.567310  8.569133
335   0  1  8.567161  8.567161 11.423564
336   0  1  8.567678  8.567678 14.278421
337   0  1  8.567687  8.567687 17.134558
338   0  1  8.567186  8.567186 19.990907
339   0  1  8.566688  8.566688 22.846582
340   0  1  8.566465  8.566465 25.701564
341   0  1  8.565816 11.421525  0.002747
342   0  1  8.566084 11.421558  2.857722
343   0  1  8.566392 11.421570  5.713132
344   0  1  8.566582 11.421546  8.568677
345   0  1  8.566591 11.421500 11.423922
346   0  1  8.566649 11.421627 14.279396
347   0  1  8.566451 11.421668 17.135406
348   0  1  8.566075 11.421593 19.991239
349   0  1  8.565769 11.421500 22.846474
350   0  1  8.565683 11.421484 25.701213
351   0  1  8.565212 14.276818  0.002603
352   0  1  8.565492 14.276550  2.857598
353   0  1  8.565813 14.276185  5.713071
354   0  1  8.565996 14.275924  8.568691
355   0  1  8.566001 14.275866 11.424074
356   0  1  8.565960 14.275920 14.279594
357   0  1  8.565736 14.276182 17.135524
358   0  1  8.565379 14.276551 19.991284
359   0  1  8.565120 14.276820 22.846423
360   0  1  8.565069 14.276911 25.701090
361   0  1  8.564988 17.132352  0.002715
362   0  1  8.565339 17.131751  2.857848
363   0  1  8.565714 17.131083  5.713522
364   0  1  8.565805 17.130808  8.568990
365   0  1  8.565722 17.130815 11.423932
366   0  1  8.565865 17.130719 14.279099
367   0  1  8.565761 17.130980 17.135024
368   0  1  8.565313 17.131722 19.991122
369   0  1  8.564927 17.132386 22.846512
370   0  1  8.564823 17.132604 25.701214
371   0  1  8.564725 19.988183  0.003021
372   0  1  8.565357 19.987197  2.858354
373   0  1  8.565899 19.986448  5.714140
374   0  1  8.565778 19.986434  8.569145
375   0  1  8.565656 19.986428 11.423589
376   0  1  8.566138 19.986058 14.278431
377   0  1  8.566285 19.986040 17.134247
378   0  1  8.565578 19.986955 19.990785
379   0  1  8.564769 19.988127 22.846715
380   0  1  8.564460 19.988624 25.701574
381   0  1  8.564250 22.844064  0.003484
382   0  1  8.565529 22.842748  2.858996
383   0  1  8.566232 22.842266  5.714533
384   0  1  8.565953 22.842373  8.569133
385   0  1  8.565862 22.842226 11.423336
386   0  1  8.566600 22.841757 14.277959
387   0  1  8.566867 22.841589 17.133606
388   0  1  8.565862 22.842298 19.990240
389   0  1  8.564350 22.843834 22.846766
390   0  1  8.563701 22.844681 25.701945
391   0  1  8.564666 25.698965  0.004255
392   0  1  8.566369 25.698242  2.859576
393   0  1  8.567111 25.697994  5.714906
394   0  1  8.566583 25.698069  8.569316
395   0  1  8.566367 25.697962 11.423314
396   0  1  8.567172 25.697687 14.277676
397   0  1  8.567469 25.697572 17.133140
398   0  1  8.566266 25.697952 19.989644
399   0  1  8.564491 25.698805 22.846067
400   0  1  8.563531 25.699665 25.702065
401   0  1 11.421391 28.552870  0.003292
402   0  1 11.421564  0.000312  2.858674
403   0  1 11.421502  0.000638  5.714265
404   0  1 11.421274  0.000753  8.569419
405   0  1 11.421150  0.000776 11.423844
406   0  1 11.421224  0.000760 14.278535
407   0  1 11.421265  0.000642 17.134237
408   0  1 11.421150  0.000302 19.990324
409   0  1 11.421038 28.552855 22.846052
410   0  1 11.421126 28.552514 25.701292
411   0  1 11.421634  2.855065  0.003052
412   0  1 11.421854  2.855879  2.858450
413   0  1 11.421852  2.856398  5.714074
414   0  1 11.421669  2.856529  8.569267
415   0  1 11.421567  2.856555 11.423835
416   0  1 11.421662  2.856571 14.278668
417   0  1 11.421708  2.856395 17.134424
418   0  1 11.421557  2.855801 19.990565
419   0  1 11.421361  2.854982 22.846298
420   0  1 11.421397  2.854655 25.701299
421   0  1 11.421723  5.710545  0.002888
422   0  1 11.421852  5.711133  2.858039
423   0  1 11.421923  5.711716  5.713661
424   0  1 11.421804  5.711871  8.568988
425   0  1 11.421736  5.711893 11.423839
426   0  1 11.421878  5.711954 14.278956
427   0  1 11.421959  5.711755 17.134840
428   0  1 11.421784  5.711083 19.990972
429   0  1 11.421610  5.710470 22.846460
430   0  1 11.421604  5.710275 25.701287
431   0  1 11.421525  8.565816  0.002747
432   0  1 11.421558  8.566084  2.857722
433   0  1 11.421570  8.566392  5.713132
434   0  1 11.421546  8.566582  8.568677
435   0  1 11.421500  8.566591 11.423922
436   0  1 11.421627  8.566649 14.279396
437   0  1 11.421668  8.566451 17.135406
438   0  1 11.421593  8.566075 19.991239
439   0  1 11.421500  8.565769 22.846474
440   0  1 11.421484  8.565683 25.701213
441   0  1 11.420854 11.420854  0.002652
442   0  1 11.420857 11.420857  2.857598
443   0  1 11.420833 11.420833  5.712948
444   0  1 11.420792 11.420792  8.568551
445   0  1 11.420770 11.420770 11.424068
446   0  1 11.420805 11.420805 14.279723
447   0  1 11.420851 11.420851 17.135635
448   0  1 11.420849 11.420849 19.991275
449   0  1 11.420826 11.420826 22.846382
450   0  1 11.420834 11.420834 25.701095
451   0  1 11.420146 14.276047  0.002659
452   0  1 11.420129 14.275791  2.857710
453   0  1 11.420059 14.275431  5.713203
454   0  1 11.419980 14.275155  8.568851
455   0  1 11.419983 14.275122 11.424140
456   0  1 11.419953 14.275145 14.279522
457   0  1 11.420019 14.275419 17.135400
458   0  1 11.420076 14.275784 19.991119
459   0  1 11.420102 14.276044 22.846283
460   0  1 11.420128 14.276134 25.701043
461   0  1 11.419919 17.131713  0.002784
462   0  1 11.419840 17.131143  2.858027
463   0  1 11.419677 17.130500  5.713753
464   0  1 11.419623 17.130274  8.569199
465   0  1 11.419628 17.130261 11.424069
466   0  1 11.419631 17.130244 14.279077
467   0  1 11.419685 17.130462 17.134830
468   0  1 11.419818 17.131139 19.990848
469   0  1 11.419882 17.131737 22.846250
470   0  1 11.419918 17.131940 25.701095
471   0  1 11.420068 19.987542  0.003021
472   0  1 11.419959 19.986720  2.858455
473   0  1 11.419811 19.986171  5.714119
474   0  1 11.419700 19.986034  8.569358
475   0  1 11.419690 19.986015 11.423927
476   0  1 11.419777 19.985954 14.278716
477   0  1 11.419897 19.986096 17.134415
478   0  1 11.419978 19.986716 19.990505
479   0  1 11.420030 19.987586 22.846203
480   0  1 11.420065 19.987934 25.701214
481   0  1 11.420440 22.842910  0.003313
482   0  1 11.420441 22.842303  2.858697
483   0  1 11.420297 22.842021  5.714260
484   0  1 11.420121 22.841984  8.569406
485   0  1 11.420075 22.841961 11.423845
486   0  1 11.420192 22.841900 14.278543
487   0  1 11.420329 22.841971 17.134233
488   0  1 11.420362 22.842338 19.990308
489   0  1 11.420317 22.842975 22.846040
490   0  1 11.420356 22.843325 25.701293
491   0  1 11.420957 25.697861  0.003413
492   0  1 11.421055 25.697833  2.858755
493   0  1 11.420940 25.697876  5.714301
494   0  1 11.420715 25.697935  8.569440
495   0  1 11.420616 25.697937 11.423840
496   0  1 11.420707 25.697903 14.278499
497   0  1 11.420797 25.697881 17.134191
498   0  1 11.420756 25.697892 19.990252
499   0  1 11.420680 25.697921 22.845941
500   0  1 11.420755 25.697922 25.701306
501   0  1 14.276972 28.552364  0.002947
502   0  1 14.275808  0.000484  2.858951
503   0  1 14.274929  0.001083  5.715020
504   0  1 14.275007  0.001036  8.570034
505   0  1 14.275328  0.000903 11.424051
506   0  1 14.274993  0.001046 14.278220
507   0  1 14.274909  0.001092 17.133577
508   0  1 14.275793  0.000485 19.989955
509   0  1 14.276965 28.552362 22.846104
510   0  1 14.277390 28.551764 25.701099
511   0  1 14.276757  2.854892  0.002755
512   0  1 14.276160  2.855854  2.858321
513   0  1 14.275536  2.856630  5.714364
514   0  1 14.275542  2.856681  8.569624
515   0  1 14.275758  2.856543 11.424045
516   0  1 14.275532  2.856650 14.278622
517   0  1 14.275524  2.856546 17.134234
518   0  1 14.276152  2.855730 19.990595
519   0  1 14.276756  2.854795 22.846311
520   0  1 14.276950  2.854465 25.701108
521   0  1 14.276887  5.710185  0.002657
522   0  1 14.276551  5.710790  2.857840
523   0  1 14.276126  5.711433  5.713567
524   0  1 14.275952  5.711674  8.569089
525   0  1 14.276014  5.711617 11.424042
526   0  1 14.275948  5.711629 14.279152
527   0  1 14.276122  5.711320 17.135025
528   0  1 14.276552  5.710628 19.991073
529   0  1 14.276890  5.710057 22.846416
530   0  1 14.277001  5.709905 25.701111
531   0  1 14.276818  8.565212  0.002603
532   0  1 14.276550  8.565492  2.857598
533   0  1 14.276185  8.565813  5.713071
534   0  1 14.275924  8.565996  8.568691
535   0  1 14.275866  8.566001 11.424074
536   0  1 14.275920  8.565960 14.279594
537   0  1 14.276182  8.565736 17.135524
538   0  1 14.276551  8.565379 19.991284
539   0  1 14.276820  8.565120 22.846423
540   0  1 14.276911  8.565069 25.701090
541   0  1 14.276047 11.420146  0.002659
542   0  1 14.275791 11.420129  2.857710
543   0  1 14.275431 11.420059  5.713203
544   0  1 14.275155 11.419980  8.568851
545   0  1 14.275122 11.419983 11.424140
546   0  1 14.275145 11.419953 14.279522
547   0  1 14.275419 11.420019 17.135400
548   0  1 14.275784 11.420076 19.991119
549   0  1 14.276044 11.420102 22.846283
550   0  1 14.276134 11.420128 25.701043
551   0  1 14.274855 14.274855  0.002836
552   0  1 14.274556 14.274556  2.858185
553   0  1 14.274126 14.274126  5.714063
554   0  1 14.273976 14.273976  8.569695
555   0  1 14.274207 14.274207 11.424174
556   0  1 14.273958 14.273958 14.278722
557   0  1 14.274101 14.274101 17.134540
558   0  1 14.274537 14.274537 19.990612
559   0  1 14.274845 14.274845 22.846059
560   0  1 14.274947 14.274947 25.701018
561   0  1 14.274247 17.130220  0.003084
562   0  1 14.273724 17.129481  2.858938
563   0  1 14.272980 17.128709  5.715487
564   0  1 14.273327 17.129197  8.570382
565   0  1 14.273773 17.129543 11.424135
566   0  1 14.273305 17.129194 14.277979
567   0  1 14.272946 17.128705 17.133100
568   0  1 14.273696 17.129496 19.989879
569   0  1 14.274233 17.130245 22.845855
570   0  1 14.274395 17.130495 25.701043
571   0  1 14.274905 19.986213  0.003476
572   0  1 14.273810 19.984962  2.860031
573   0  1 14.273068 19.984964  5.715989
574   0  1 14.273413 19.985412  8.570566
575   0  1 14.273893 19.985635 11.424069
576   0  1 14.273392 19.985429 14.277703
577   0  1 14.273036 19.985010 17.132582
578   0  1 14.273784 19.985042 19.988829
579   0  1 14.274894 19.986286 22.845540
580   0  1 14.275215 19.986797 25.701087
581   0  1 14.276076 22.841661  0.004127
582   0  1 14.274718 22.841449  2.860040
583   0  1 14.273690 22.841653  5.715841
584   0  1 14.273874 22.841832  8.570482
585   0  1 14.274314 22.841890 11.424039
586   0  1 14.273854 22.841874 14.277746
587   0  1 14.273662 22.841755 17.132728
588   0  1 14.274697 22.841591 19.988849
589   0  1 14.276067 22.841769 22.844928
590   0  1 14.276597 22.842314 25.701105
591   0  1 14.276853 25.697082  0.003681
592   0  1 14.275415 25.697754  2.859561
593   0  1 14.274340 25.698111  5.715484
594   0  1 14.274439 25.698114  8.570303
595   0  1 14.274827 25.698050 11.424044
596   0  1 14.274421 25.698157 14.277936
597   0  1 14.274315 25.698205 17.133100
598   0  1 14.275397 25.697875 19.989340
599   0  1 14.276846 25.697168 22.845372
600   0  1 14.277618 25.696480 25.701101
601   0  1 17.131620 28.552801  0.003518
602   0  1 17.128563  0.002183  2.861447
603   0  1 17.127996  0.002295  5.717530
604   0  1 17.129881  0.001168  8.570603
605   0  1 17.130615  0.000800 11.423852
606   0  1 17.129901  0.001180 14.277363
607   0  1 17.128193  0.002312 17.130980
608   0  1 17.128946  0.002190 19.987567
609   0  1 17.131958 28.552808 22.845844
610   0  1 17.133137 28.551416 25.701306
611   0  1 17.131904  2.855187  0.003045
612   0  1 17.130235  2.856784  2.859553
613   0  1 17.129411  2.857534  5.716026
614   0  1 17.130447  2.856662  8.570075
615   0  1 17.130923  2.856322 11.423846
616   0  1 17.130437  2.856701 14.277880
617   0  1 17.129538  2.857522 17.132491
618   0  1 17.130525  2.856705 19.989478
619   0  1 17.132185  2.855103 22.846337
620   0  1 17.132647  2.854520 25.701318
621   0  1 17.132758  5.709572  0.002782
622   0  1 17.131813  5.710498  2.858231
623   0  1 17.130982  5.711321  5.714207
624   0  1 17.130963  5.711367  8.569340
625   0  1 17.131084  5.711271 11.423852
626   0  1 17.130883  5.711438 14.278631
627   0  1 17.130945  5.711343 17.134312
628   0  1 17.131894  5.710429 19.990794
629   0  1 17.132889  5.709481 22.846584
630   0  1 17.133181  5.709182 25.701295
631   0  1 17.132352  8.564988  0.002715
632   0  1 17.131751  8.565339  2.857848
633   0  1 17.131083  8.565714  5.713522
634   0  1 17.130808  8.565805  8.568990
635   0  1 17.130815  8.565722 11.423932
636   0  1 17.130719  8.565865 14.279099
637   0  1 17.130980  8.565761 17.135024
638   0  1 17.131722  8.565313 19.991122
639   0  1 17.132386  8.564927 22.846512
640   0  1 17.132604  8.564823 25.701214
641   0  1 17.131713 11.419919  0.002784
642   0  1 17.131143 11.419840  2.858027
643   0  1 17.130500 11.419677  5.713753
644   0  1 17.130274 11.419623  8.569199
645   0  1 17.130261 11.419628 11.424069
646   0  1 17.130244 11.419631 14.279077
647   0  1 17.130462 11.419685 17.134830
648   0  1 17.131139 11.419818 19.990848
649   0  1 17.131737 11.419882 22.846250
650   0  1 17.131940 11.419918 25.701095
651   0  1 17.130220 14.274247  0.003084
652   0  1 17.129481 14.273724  2.858938
653   0  1 17.128709 14.272980  5.715487
654   0  1 17.129197 14.273327  8.570382
655   0  1 17.129543 14.273773 11.424135
656   0  1 17.129194 14.273305 14.277979
657   0  1 17.128705 14.272946 17.133100
658   0  1 17.129496 14.273696 19.989879
659   0  1 17.130245 14.274233 22.845855
660   0  1 17.130495 14.274395 25.701043
661   0  1 17.127865 17.127865  0.003618
662   0  1 17.126619 17.126619  2.860873
663   0  1 17.125485 17.125485  5.719193
664   0  1 17.128146 17.128146  8.571556
665   0  1 17.129073 17.129073 11.424066
666   0  1 17.128095 17.128095 14.276702
667   0  1 17.125401 17.125401 17.129345
668   0  1 17.126568 17.126568 19.987962
669   0  1 17.127865 17.127865 22.845410
670   0  1 17.128239 17.128239 25.701099
671   0  1 17.128163 19.983664  0.004168
672   0  1 17.124423 19.980169  2.865019
673   0  1 17.125058 19.982669  5.720171
674   0  1 17.128217 19.984796  8.571634
675   0  1 17.129264 19.985414 11.423931
676   0  1 17.128100 19.984708 14.276431
677   0  1 17.124896 19.982568 17.128312
678   0  1 17.124328 19.980123 19.983875
679   0  1 17.128161 19.983676 22.845026
680   0  1 17.128968 19.984803 25.701210
681   0  1 17.130081 22.838795  0.007271
682   0  1 17.126273 22.839715  2.864526
683   0  1 17.126023 22.841155  5.719486
684   0  1 17.128788 22.841726  8.571281
685   0  1 17.129750 22.841858 11.423852
686   0  1 17.128680 22.841650 14.276670
687   0  1 17.125930 22.841113 17.128974
688   0  1 17.126293 22.839741 19.984425
689   0  1 17.130179 22.838834 22.842036
690   0  1 17.132384 22.841498 25.701279
691   0  1 17.131690 25.696507  0.005537
692   0  1 17.127646 25.698448  2.863018
693   0  1 17.127004 25.698791  5.718556
694   0  1 17.129355 25.698233  8.570945
695   0  1 17.130224 25.698030 11.423847
696   0  1 17.129326 25.698210 14.276999
697   0  1 17.127095 25.698819 17.129927
698   0  1 17.127899 25.698527 19.985974
699   0  1 17.131948 25.696570 22.843803
700   0  1 17.134872 25.693941 25.701295
701   0  1 19.982810  0.004548  0.008037
702   0  1 19.978394  0.007800  2.868881
703   0  1 19.983941  0.002564  5.718411
704   0  1 19.986478  0.000849  8.569996
705   0  1 19.986887  0.000478 11.423353
706   0  1 19.985971  0.000855 14.277065
707   0  1 19.983821  0.002572 17.129656
708   0  1 19.978879  0.007796 19.980333
709   0  1 19.983154  0.004571 22.842330
710   0  1 19.987253  0.000381 25.702093
711   0  1 19.989614  2.852953  0.003864
712   0  1 19.986418  2.855887  2.861092
713   0  1 19.985847  2.856674  5.716599
714   0  1 19.986875  2.856011  8.569698
715   0  1 19.986998  2.855894 11.423330
716   0  1 19.986274  2.856389 14.277312
717   0  1 19.985510  2.857040 17.131507
718   0  1 19.986549  2.856089 19.988185
719   0  1 19.989825  2.853036 22.846513
720   0  1 19.991348  2.851533 25.702097
721   0  1 19.988038  5.709641  0.003473
722   0  1 19.986337  5.711278  2.859605
723   0  1 19.985703  5.712063  5.715665
724   0  1 19.986706  5.711144  8.569391
725   0  1 19.986800  5.711027 11.423343