Generated by pymatgen.io.lammps.data.LammpsData

167  atoms

  2  atom types

0.000000 28.553120  xlo xhi
0.000000 28.553120  ylo yhi
0.000000 28.553120  zlo zhi
0.000000 0.000000 0.000000  xy xz yz

Masses

1  55.847000
2  30.973762

Atoms

1     1  1 28.544684 28.617545 28.544684
2     1  1  0.011324  0.003379  2.854494
3     1  1  0.001489  0.000659  5.711267
8     1  1  0.000142 -0.000147 19.987145
9     1  1  0.002323 -0.000730 22.845735
10    1  1 28.497888 28.466190 25.784699
11    1  1  0.004763  2.862849  0.004763
12    1  1 28.551962  2.854793  2.854626
19    1  1 28.553145  2.848788 22.849009
20    1  1  0.002309  2.852032 25.698500
21    1  1  0.000440  5.711187  0.000440
30    1  1  0.000136  5.710652 25.697945
71    1  1  0.000388 19.984411  0.000388
80    1  1  0.001445 19.986553 25.697124
81    1  1  0.002780 22.797277  0.002780
82    1  1 28.545710 22.857654  2.840212
89    1  1 28.551943 22.843146 22.842924
90    1  1  0.011255 22.843350 25.694361
91    1  1 27.839851 26.411060 27.839851
92    1  1  0.002846 25.695036  2.900628
93    1  1  0.000446 25.697410  5.713453
98    1  1  0.000438 25.697319 19.986572
99    1  1  0.004757 25.693007 22.834864
100   1  1 28.544649 25.706233 25.633332
101   1  1  2.854494  0.003379  0.011324
102   1  1  2.831149 28.531186  2.831149
109   1  1  2.855426 28.555943 22.843834
110   1  1  2.858936  0.000286 25.697478
111   1  1  2.854626  2.854793 28.551962
119   1  1  2.846304  2.845901 22.851899
120   1  1  2.855414  2.853928 25.694953
181   1  1  2.840212 22.857654 28.545710
182   1  1  2.838144 22.859737  2.838144
189   1  1  2.854440 22.843354 22.843355
190   1  1  2.831066 22.866761 25.719770
191   1  1  2.900628 25.695036  0.002846
192   1  1  2.840274 25.705251  2.840274
199   1  1  2.854626 25.698938 22.842934
200   1  1  2.854468 25.686502 25.694402
201   1  1  5.711267  0.000659  0.001489
210   1  1  5.713243  0.001555 25.696228
291   1  1  5.713453 25.697410  0.000446
300   1  1  5.711253 25.696333 25.697150
701   1  1 19.987145 -0.000147  0.000142
710   1  1 19.987593  0.000017 25.697823
791   1  1 19.986572 25.697319  0.000438
800   1  1 19.987149 25.697653 25.697948
801   1  1 22.845735 -0.000730  0.002323
802   1  1 22.843834 28.555943  2.855426
809   1  1 22.850094 28.549318 22.850094
810   1  1 22.844038  0.001953 25.695864
811   1  1 22.849009  2.848788 28.553145
812   1  1 22.851899  2.845901  2.846304
819   1  1 22.850569  2.847255 22.850569
820   1  1 22.850083  2.847738 25.701637
881   1  1 22.842924 22.843146 28.551943
882   1  1 22.843355 22.843354  2.854440
889   1  1 22.851918 22.851443 22.851918
890   1  1 22.843786 22.842287 25.694890
891   1  1 22.834864 25.693007  0.004757
892   1  1 22.842934 25.698938  2.854626
899   1  1 22.849071 25.697834 22.849071
900   1  1 22.845735 25.695468 25.698511
901   1  1 25.784699 28.466190 28.497888
902   1  1 25.697478  0.000286  2.858936
903   1  1 25.696228  0.001555  5.713243
908   1  1 25.697823  0.000017 19.987593
909   1  1 25.695864  0.001953 22.844038
910   1  1 25.742554 28.508366 25.742554
911   1  1 25.698500  2.852032  0.002309
912   1  1 25.694953  2.853928  2.855414
919   1  1 25.701637  2.847738 22.850083
920   1  1 25.695856  2.853777 25.695856
921   1  1 25.697945  5.710652  0.000136
930   1  1 25.697808  5.710220 25.697808
971   1  1 25.697124 19.986553  0.001445
980   1  1 25.696204 19.984521 25.696204
981   1  1 25.694361 22.843350  0.011255
982   1  1 25.719770 22.866761  2.831066
989   1  1 25.694890 22.842287 22.843786
990   1  1 25.697449 22.838823 25.697449
991   1  1 25.633332 25.706233 28.544649
992   1  1 25.694402 25.686502  2.854468
993   1  1 25.697150 25.696333  5.711253
998   1  1 25.697948 25.697653 19.987149
999   1  1 25.698511 25.695468 22.845735
1000  1  1 25.784691 25.753016 25.784691
1001  1  1  1.428590  1.430630  1.428590
1002  1  1  1.430990  1.427598  4.282225
1008  1  1  1.426028  1.425861 21.417316
1009  1  1  1.405721  1.402334 24.295438
1010  1  1  1.431609  1.426006 27.114863
1011  1  1  1.429356  4.285074  1.429356
1019  1  1  1.426011  4.280481 24.271918
1020  1  1  1.428451  4.283150 27.124312
1071  1  1  1.430526 21.415575  1.430526
1079  1  1  1.430940 21.415624 24.270176
1080  1  1  1.427737 21.417460 27.123545
1081  1  1  1.384034 24.313840  1.384034
1082  1  1  1.430584 24.267294  4.282369
1088  1  1  1.429369 24.268403 21.412630
1089  1  1  1.428556 24.269227 24.267115
1090  1  1  1.341811 24.356025 27.181418
1091  1  1  1.341856 27.069513  1.341856
1092  1  1  1.427897 27.127388  4.280508
1098  1  1  1.428506 27.126584 21.414556
1099  1  1  1.431603 27.136030 24.271739
1100  1  1  1.493081 27.116144 27.134775
1101  1  1  4.282225  1.427598  1.430990
1109  1  1  4.282534  1.426440 24.271338
1110  1  1  4.282977  1.426648 27.126869
1181  1  1  4.282369 24.267294  1.430584
1189  1  1  4.282186 24.266849 24.270183
1190  1  1  4.280436 24.270028 27.123615
1191  1  1  4.280508 27.127388  1.427897
1199  1  1  4.282986 27.124023 24.271106
1200  1  1  4.291167 27.129735 27.121199
1701  1  1 21.417316  1.425861  1.426028
1709  1  1 21.417373  1.426337 24.271494
1710  1  1 21.417698  1.425210 27.126570
1781  1  1 21.412630 24.268403  1.429369
1789  1  1 21.417328 24.271766 24.271930
1790  1  1 21.414557 24.269254 27.124292
1791  1  1 21.414556 27.126584  1.428506
1799  1  1 21.417701 27.124382 24.272618
1800  1  1 21.412388 27.125389 27.125524
1801  1  1 24.295438  1.402334  1.405721
1802  1  1 24.271338  1.426440  4.282534
1808  1  1 24.271494  1.426337 21.417373
1809  1  1 24.288650  1.409173 24.288650
1810  1  1 24.286386  1.411406 27.133745
1811  1  1 24.271918  4.280481  1.426011
1819  1  1 24.271488  4.280450 24.271488
1820  1  1 24.272576  4.280133 27.126586
1871  1  1 24.270176 21.415624  1.430940
1879  1  1 24.271311 21.415174 24.271311
1880  1  1 24.271066 21.414772 27.126835
1881  1  1 24.267115 24.269227  1.428556
1882  1  1 24.270183 24.266849  4.282186
1888  1  1 24.271930 24.271766 21.417328
1889  1  1 24.295443 24.292046 24.295443
1890  1  1 24.271709 24.266158 27.114827
1891  1  1 24.271739 27.136030  1.431603
1892  1  1 24.271106 27.124023  4.282986
1898  1  1 24.272618 27.124382 21.417701
1899  1  1 24.286408 27.117192 24.286408
1900  1  1 24.225785 27.127383 27.123519
1901  1  1 27.114863  1.426006  1.431609
1902  1  1 27.126869  1.426648  4.282977
1908  1  1 27.126570  1.425210 21.417698
1909  1  1 27.133745  1.411406 24.286386
1910  1  1 27.123520  1.471977 27.123520
1911  1  1 27.124312  4.283150  1.428451
1919  1  1 27.126586  4.280133 24.272576
1920  1  1 27.125517  4.285389 27.125517
1971  1  1 27.123545 21.417460  1.427737
1979  1  1 27.126835 21.414772 24.271066
1980  1  1 27.121154 21.406658 27.121154
1981  1  1 27.181418 24.356025  1.341811
1982  1  1 27.123615 24.270028  4.280436
1988  1  1 27.124292 24.269254 21.414557
1989  1  1 27.114827 24.266158 24.271709
1990  1  1 27.134728 24.204725 27.134728
1991  1  1 27.134775 27.116144  1.493081
1992  1  1 27.121199 27.129735  4.291167
1998  1  1 27.125524 27.125389 21.412388
1999  1  1 27.123519 27.127383 24.225785

